<?xml version="1.0"?>
<VTKFile type="UnstructuredGrid" version="2.2">
  <UnstructuredGrid>
    <Piece NumberOfPoints="641" NumberOfCells="160">
      <Points>
        <DataArray type="Float64" NumberOfComponents="3" format="ascii">0 0 0 0.0078125 0 0 0.001349009098796965 0 0 0.00390625 0 0 0.006463490901203035 0 0 0.015625 0 0 0.009161509098796965 0 0 0.01171875 0 0 0.01427599090120303 0 0 0.0234375 0 0 0.01697400909879697 0 0 0.01953125 0 0 0.02208849090120304 0 0 0.03125 0 0 0.02478650909879697 0 0 0.02734375 0 0 0.02990099090120303 0 0 0.0390625 0 0 0.03259900909879696 0 0 0.03515625 0 0 0.03771349090120303 0 0 0.046875 0 0 0.04041150909879696 0 0 0.04296875 0 0 0.04552599090120304 0 0 0.0546875 0 0 0.04822400909879697 0 0 0.05078125 0 0 0.05333849090120303 0 0 0.0625 0 0 0.05603650909879696 0 0 0.05859375 0 0 0.06115099090120303 0 0 0.0703125 0 0 0.06384900909879697 0 0 0.06640625 0 0 0.06896349090120305 0 0 0.078125 0 0 0.07166150909879697 0 0 0.07421875 0 0 0.07677599090120303 0 0 0.0859375 0 0 0.07947400909879695 0 0 0.08203125 0 0 0.08458849090120303 0 0 0.09375 0 0 0.08728650909879695 0 0 0.08984375 0 0 0.09240099090120305 0 0 0.1015625 0 0 0.09509900909879697 0 0 0.09765625 0 0 0.100213490901203 0 0 0.109375 0 0 0.102911509098797 0 0 0.10546875 0 0 0.108025990901203 0 0 0.1171875 0 0 0.110724009098797 0 0 0.11328125 0 0 0.115838490901203 0 0 0.125 0 0 0.118536509098797 0 0 0.12109375 0 0 0.123650990901203 0 0 0.1328125 0 0 0.126349009098797 0 0 0.12890625 0 0 0.131463490901203 0 0 0.140625 0 0 0.134161509098797 0 0 0.13671875 0 0 0.139275990901203 0 0 0.1484375 0 0 0.141974009098797 0 0 0.14453125 0 0 0.147088490901203 0 0 0.15625 0 0 0.149786509098797 0 0 0.15234375 0 0 0.154900990901203 0 0 0.1640625 0 0 0.157599009098797 0 0 0.16015625 0 0 0.162713490901203 0 0 0.171875 0 0 0.165411509098797 0 0 0.16796875 0 0 0.170525990901203 0 0 0.1796875 0 0 0.173224009098797 0 0 0.17578125 0 0 0.178338490901203 0 0 0.1875 0 0 0.181036509098797 0 0 0.18359375 0 0 0.186150990901203 0 0 0.1953125 0 0 0.188849009098797 0 0 0.19140625 0 0 0.193963490901203 0 0 0.203125 0 0 0.196661509098797 0 0 0.19921875 0 0 0.201775990901203 0 0 0.2109375 0 0 0.204474009098797 0 0 0.20703125 0 0 0.209588490901203 0 0 0.21875 0 0 0.212286509098797 0 0 0.21484375 0 0 0.217400990901203 0 0 0.2265625 0 0 0.220099009098797 0 0 0.22265625 0 0 0.225213490901203 0 0 0.234375 0 0 0.227911509098797 0 0 0.23046875 0 0 0.233025990901203 0 0 0.2421875 0 0 0.235724009098797 0 0 0.23828125 0 0 0.240838490901203 0 0 0.25 0 0 0.243536509098797 0 0 0.24609375 0 0 0.248650990901203 0 0 0.2578125 0 0 0.251349009098797 0 0 0.25390625 0 0 0.256463490901203 0 0 0.265625 0 0 0.259161509098797 0 0 0.26171875 0 0 0.264275990901203 0 0 0.2734375 0 0 0.266974009098797 0 0 0.26953125 0 0 0.272088490901203 0 0 0.28125 0 0 0.274786509098797 0 0 0.27734375 0 0 0.279900990901203 0 0 0.2890625 0 0 0.282599009098797 0 0 0.28515625 0 0 0.287713490901203 0 0 0.296875 0 0 0.290411509098797 0 0 0.29296875 0 0 0.295525990901203 0 0 0.3046875 0 0 0.298224009098797 0 0 0.30078125 0 0 0.303338490901203 0 0 0.3125 0 0 0.306036509098797 0 0 0.30859375 0 0 0.311150990901203 0 0 0.3203125 0 0 0.313849009098797 0 0 0.31640625 0 0 0.318963490901203 0 0 0.328125 0 0 0.3216615090987969 0 0 0.32421875 0 0 0.326775990901203 0 0 0.3359375 0 0 0.329474009098797 0 0 0.33203125 0 0 0.334588490901203 0 0 0.34375 0 0 0.337286509098797 0 0 0.33984375 0 0 0.342400990901203 0 0 0.3515625 0 0 0.3450990090987969 0 0 0.34765625 0 0 0.350213490901203 0 0 0.359375 0 0 0.352911509098797 0 0 0.35546875 0 0 0.358025990901203 0 0 0.3671875 0 0 0.360724009098797 0 0 0.36328125 0 0 0.365838490901203 0 0 0.375 0 0 0.3685365090987969 0 0 0.37109375 0 0 0.373650990901203 0 0 0.3828125 0 0 0.376349009098797 0 0 0.37890625 0 0 0.381463490901203 0 0 0.390625 0 0 0.384161509098797 0 0 0.38671875 0 0 0.389275990901203 0 0 0.3984375 0 0 0.3919740090987969 0 0 0.39453125 0 0 0.397088490901203 0 0 0.40625 0 0 0.399786509098797 0 0 0.40234375 0 0 0.404900990901203 0 0 0.4140625 0 0 0.407599009098797 0 0 0.41015625 0 0 0.412713490901203 0 0 0.421875 0 0 0.4154115090987969 0 0 0.41796875 0 0 0.420525990901203 0 0 0.4296875 0 0 0.423224009098797 0 0 0.42578125 0 0 0.428338490901203 0 0 0.4375 0 0 0.431036509098797 0 0 0.43359375 0 0 0.436150990901203 0 0 0.4453125 0 0 0.4388490090987969 0 0 0.44140625 0 0 0.443963490901203 0 0 0.453125 0 0 0.446661509098797 0 0 0.44921875 0 0 0.451775990901203 0 0 0.4609375 0 0 0.454474009098797 0 0 0.45703125 0 0 0.459588490901203 0 0 0.46875 0 0 0.4622865090987969 0 0 0.46484375 0 0 0.4674009909012031 0 0 0.4765625 0 0 0.470099009098797 0 0 0.47265625 0 0 0.475213490901203 0 0 0.484375 0 0 0.477911509098797 0 0 0.48046875 0 0 0.483025990901203 0 0 0.4921875 0 0 0.4857240090987969 0 0 0.48828125 0 0 0.4908384909012031 0 0 0.5 0 0 0.493536509098797 0 0 0.49609375 0 0 0.498650990901203 0 0 0.5078125 0 0 0.501349009098797 0 0 0.50390625 0 0 0.506463490901203 0 0 0.515625 0 0 0.509161509098797 0 0 0.51171875 0 0 0.514275990901203 0 0 0.5234375 0 0 0.516974009098797 0 0 0.51953125 0 0 0.522088490901203 0 0 0.53125 0 0 0.524786509098797 0 0 0.52734375 0 0 0.529900990901203 0 0 0.5390625 0 0 0.532599009098797 0 0 0.53515625 0 0 0.537713490901203 0 0 0.546875 0 0 0.540411509098797 0 0 0.54296875 0 0 0.545525990901203 0 0 0.5546875 0 0 0.548224009098797 0 0 0.55078125 0 0 0.553338490901203 0 0 0.5625 0 0 0.556036509098797 0 0 0.55859375 0 0 0.561150990901203 0 0 0.5703125 0 0 0.563849009098797 0 0 0.56640625 0 0 0.568963490901203 0 0 0.578125 0 0 0.571661509098797 0 0 0.57421875 0 0 0.576775990901203 0 0 0.5859375 0 0 0.579474009098797 0 0 0.58203125 0 0 0.584588490901203 0 0 0.59375 0 0 0.587286509098797 0 0 0.58984375 0 0 0.592400990901203 0 0 0.6015625 0 0 0.595099009098797 0 0 0.59765625 0 0 0.600213490901203 0 0 0.609375 0 0 0.602911509098797 0 0 0.60546875 0 0 0.608025990901203 0 0 0.6171875 0 0 0.610724009098797 0 0 0.61328125 0 0 0.615838490901203 0 0 0.625 0 0 0.618536509098797 0 0 0.62109375 0 0 0.623650990901203 0 0 0.6328125 0 0 0.626349009098797 0 0 0.62890625 0 0 0.631463490901203 0 0 0.640625 0 0 0.6341615090987969 0 0 0.63671875 0 0 0.639275990901203 0 0 0.6484375 0 0 0.6419740090987969 0 0 0.64453125 0 0 0.6470884909012031 0 0 0.65625 0 0 0.649786509098797 0 0 0.65234375 0 0 0.654900990901203 0 0 0.6640625 0 0 0.657599009098797 0 0 0.66015625 0 0 0.662713490901203 0 0 0.671875 0 0 0.665411509098797 0 0 0.66796875 0 0 0.670525990901203 0 0 0.6796875 0 0 0.673224009098797 0 0 0.67578125 0 0 0.678338490901203 0 0 0.6875 0 0 0.6810365090987969 0 0 0.68359375 0 0 0.686150990901203 0 0 0.6953125 0 0 0.6888490090987969 0 0 0.69140625 0 0 0.6939634909012031 0 0 0.703125 0 0 0.696661509098797 0 0 0.69921875 0 0 0.701775990901203 0 0 0.7109375 0 0 0.704474009098797 0 0 0.70703125 0 0 0.709588490901203 0 0 0.71875 0 0 0.712286509098797 0 0 0.71484375 0 0 0.717400990901203 0 0 0.7265625 0 0 0.720099009098797 0 0 0.72265625 0 0 0.725213490901203 0 0 0.734375 0 0 0.7279115090987969 0 0 0.73046875 0 0 0.733025990901203 0 0 0.7421875 0 0 0.7357240090987969 0 0 0.73828125 0 0 0.7408384909012031 0 0 0.75 0 0 0.743536509098797 0 0 0.74609375 0 0 0.7486509909012031 0 0 0.7578125 0 0 0.751349009098797 0 0 0.75390625 0 0 0.756463490901203 0 0 0.765625 0 0 0.759161509098797 0 0 0.76171875 0 0 0.764275990901203 0 0 0.7734375 0 0 0.766974009098797 0 0 0.76953125 0 0 0.772088490901203 0 0 0.78125 0 0 0.7747865090987969 0 0 0.77734375 0 0 0.779900990901203 0 0 0.7890625 0 0 0.7825990090987969 0 0 0.78515625 0 0 0.7877134909012031 0 0 0.796875 0 0 0.790411509098797 0 0 0.79296875 0 0 0.7955259909012031 0 0 0.8046875 0 0 0.798224009098797 0 0 0.80078125 0 0 0.803338490901203 0 0 0.8125 0 0 0.806036509098797 0 0 0.80859375 0 0 0.811150990901203 0 0 0.8203125 0 0 0.813849009098797 0 0 0.81640625 0 0 0.818963490901203 0 0 0.828125 0 0 0.8216615090987969 0 0 0.82421875 0 0 0.826775990901203 0 0 0.8359375 0 0 0.8294740090987969 0 0 0.83203125 0 0 0.8345884909012031 0 0 0.84375 0 0 0.837286509098797 0 0 0.83984375 0 0 0.8424009909012031 0 0 0.8515625 0 0 0.845099009098797 0 0 0.84765625 0 0 0.850213490901203 0 0 0.859375 0 0 0.852911509098797 0 0 0.85546875 0 0 0.858025990901203 0 0 0.8671875 0 0 0.860724009098797 0 0 0.86328125 0 0 0.865838490901203 0 0 0.875 0 0 0.8685365090987969 0 0 0.87109375 0 0 0.873650990901203 0 0 0.8828125 0 0 0.8763490090987969 0 0 0.87890625 0 0 0.8814634909012031 0 0 0.890625 0 0 0.884161509098797 0 0 0.88671875 0 0 0.8892759909012031 0 0 0.8984375 0 0 0.891974009098797 0 0 0.89453125 0 0 0.897088490901203 0 0 0.90625 0 0 0.899786509098797 0 0 0.90234375 0 0 0.904900990901203 0 0 0.9140625 0 0 0.907599009098797 0 0 0.91015625 0 0 0.912713490901203 0 0 0.921875 0 0 0.915411509098797 0 0 0.91796875 0 0 0.920525990901203 0 0 0.9296875 0 0 0.9232240090987969 0 0 0.92578125 0 0 0.9283384909012031 0 0 0.9375 0 0 0.931036509098797 0 0 0.93359375 0 0 0.9361509909012031 0 0 0.9453125 0 0 0.938849009098797 0 0 0.94140625 0 0 0.943963490901203 0 0 0.953125 0 0 0.946661509098797 0 0 0.94921875 0 0 0.951775990901203 0 0 0.9609375 0 0 0.954474009098797 0 0 0.95703125 0 0 0.959588490901203 0 0 0.96875 0 0 0.962286509098797 0 0 0.96484375 0 0 0.967400990901203 0 0 0.9765625 0 0 0.9700990090987969 0 0 0.97265625 0 0 0.9752134909012031 0 0 0.984375 0 0 0.977911509098797 0 0 0.98046875 0 0 0.9830259909012031 0 0 0.9921875 0 0 0.985724009098797 0 0 0.98828125 0 0 0.990838490901203 0 0 1 0 0 0.993536509098797 0 0 0.99609375 0 0 0.998650990901203 0 0 1.0078125 0 0 1.001349009098797 0 0 1.00390625 0 0 1.006463490901203 0 0 1.015625 0 0 1.009161509098797 0 0 1.01171875 0 0 1.014275990901203 0 0 1.0234375 0 0 1.016974009098797 0 0 1.01953125 0 0 1.022088490901203 0 0 1.03125 0 0 1.024786509098797 0 0 1.02734375 0 0 1.029900990901203 0 0 1.0390625 0 0 1.032599009098797 0 0 1.03515625 0 0 1.037713490901203 0 0 1.046875 0 0 1.040411509098797 0 0 1.04296875 0 0 1.045525990901203 0 0 1.0546875 0 0 1.048224009098797 0 0 1.05078125 0 0 1.053338490901203 0 0 1.0625 0 0 1.056036509098797 0 0 1.05859375 0 0 1.061150990901203 0 0 1.0703125 0 0 1.063849009098797 0 0 1.06640625 0 0 1.068963490901203 0 0 1.078125 0 0 1.071661509098797 0 0 1.07421875 0 0 1.076775990901203 0 0 1.0859375 0 0 1.079474009098797 0 0 1.08203125 0 0 1.084588490901203 0 0 1.09375 0 0 1.087286509098797 0 0 1.08984375 0 0 1.092400990901203 0 0 1.1015625 0 0 1.095099009098797 0 0 1.09765625 0 0 1.100213490901203 0 0 1.109375 0 0 1.102911509098797 0 0 1.10546875 0 0 1.108025990901203 0 0 1.1171875 0 0 1.110724009098797 0 0 1.11328125 0 0 1.115838490901203 0 0 1.125 0 0 1.118536509098797 0 0 1.12109375 0 0 1.123650990901203 0 0 1.1328125 0 0 1.126349009098797 0 0 1.12890625 0 0 1.131463490901203 0 0 1.140625 0 0 1.134161509098797 0 0 1.13671875 0 0 1.139275990901203 0 0 1.1484375 0 0 1.141974009098797 0 0 1.14453125 0 0 1.147088490901203 0 0 1.15625 0 0 1.149786509098797 0 0 1.15234375 0 0 1.154900990901203 0 0 1.1640625 0 0 1.157599009098797 0 0 1.16015625 0 0 1.162713490901203 0 0 1.171875 0 0 1.165411509098797 0 0 1.16796875 0 0 1.170525990901203 0 0 1.1796875 0 0 1.173224009098797 0 0 1.17578125 0 0 1.178338490901203 0 0 1.1875 0 0 1.181036509098797 0 0 1.18359375 0 0 1.186150990901203 0 0 1.1953125 0 0 1.188849009098797 0 0 1.19140625 0 0 1.193963490901203 0 0 1.203125 0 0 1.196661509098797 0 0 1.19921875 0 0 1.201775990901203 0 0 1.2109375 0 0 1.204474009098797 0 0 1.20703125 0 0 1.209588490901203 0 0 1.21875 0 0 1.212286509098797 0 0 1.21484375 0 0 1.217400990901203 0 0 1.2265625 0 0 1.220099009098797 0 0 1.22265625 0 0 1.225213490901203 0 0 1.234375 0 0 1.227911509098797 0 0 1.23046875 0 0 1.233025990901203 0 0 1.2421875 0 0 1.235724009098797 0 0 1.23828125 0 0 1.240838490901203 0 0 1.25 0 0 1.243536509098797 0 0 1.24609375 0 0 1.248650990901203 0 0 </DataArray>
      </Points>
      <Cells>
        <DataArray type="Int32" Name="connectivity" format="ascii">0 1 2 3 4 1 5 6 7 8 5 9 10 11 12 9 13 14 15 16 13 17 18 19 20 17 21 22 23 24 21 25 26 27 28 25 29 30 31 32 29 33 34 35 36 33 37 38 39 40 37 41 42 43 44 41 45 46 47 48 45 49 50 51 52 49 53 54 55 56 53 57 58 59 60 57 61 62 63 64 61 65 66 67 68 65 69 70 71 72 69 73 74 75 76 73 77 78 79 80 77 81 82 83 84 81 85 86 87 88 85 89 90 91 92 89 93 94 95 96 93 97 98 99 100 97 101 102 103 104 101 105 106 107 108 105 109 110 111 112 109 113 114 115 116 113 117 118 119 120 117 121 122 123 124 121 125 126 127 128 125 129 130 131 132 129 133 134 135 136 133 137 138 139 140 137 141 142 143 144 141 145 146 147 148 145 149 150 151 152 149 153 154 155 156 153 157 158 159 160 157 161 162 163 164 161 165 166 167 168 165 169 170 171 172 169 173 174 175 176 173 177 178 179 180 177 181 182 183 184 181 185 186 187 188 185 189 190 191 192 189 193 194 195 196 193 197 198 199 200 197 201 202 203 204 201 205 206 207 208 205 209 210 211 212 209 213 214 215 216 213 217 218 219 220 217 221 222 223 224 221 225 226 227 228 225 229 230 231 232 229 233 234 235 236 233 237 238 239 240 237 241 242 243 244 241 245 246 247 248 245 249 250 251 252 249 253 254 255 256 253 257 258 259 260 257 261 262 263 264 261 265 266 267 268 265 269 270 271 272 269 273 274 275 276 273 277 278 279 280 277 281 282 283 284 281 285 286 287 288 285 289 290 291 292 289 293 294 295 296 293 297 298 299 300 297 301 302 303 304 301 305 306 307 308 305 309 310 311 312 309 313 314 315 316 313 317 318 319 320 317 321 322 323 324 321 325 326 327 328 325 329 330 331 332 329 333 334 335 336 333 337 338 339 340 337 341 342 343 344 341 345 346 347 348 345 349 350 351 352 349 353 354 355 356 353 357 358 359 360 357 361 362 363 364 361 365 366 367 368 365 369 370 371 372 369 373 374 375 376 373 377 378 379 380 377 381 382 383 384 381 385 386 387 388 385 389 390 391 392 389 393 394 395 396 393 397 398 399 400 397 401 402 403 404 401 405 406 407 408 405 409 410 411 412 409 413 414 415 416 413 417 418 419 420 417 421 422 423 424 421 425 426 427 428 425 429 430 431 432 429 433 434 435 436 433 437 438 439 440 437 441 442 443 444 441 445 446 447 448 445 449 450 451 452 449 453 454 455 456 453 457 458 459 460 457 461 462 463 464 461 465 466 467 468 465 469 470 471 472 469 473 474 475 476 473 477 478 479 480 477 481 482 483 484 481 485 486 487 488 485 489 490 491 492 489 493 494 495 496 493 497 498 499 500 497 501 502 503 504 501 505 506 507 508 505 509 510 511 512 509 513 514 515 516 513 517 518 519 520 517 521 522 523 524 521 525 526 527 528 525 529 530 531 532 529 533 534 535 536 533 537 538 539 540 537 541 542 543 544 541 545 546 547 548 545 549 550 551 552 549 553 554 555 556 553 557 558 559 560 557 561 562 563 564 561 565 566 567 568 565 569 570 571 572 569 573 574 575 576 573 577 578 579 580 577 581 582 583 584 581 585 586 587 588 585 589 590 591 592 589 593 594 595 596 593 597 598 599 600 597 601 602 603 604 601 605 606 607 608 605 609 610 611 612 609 613 614 615 616 613 617 618 619 620 617 621 622 623 624 621 625 626 627 628 625 629 630 631 632 629 633 634 635 636 633 637 638 639 640 </DataArray>
        <DataArray type="Int32" Name="offsets" format="ascii">5 10 15 20 25 30 35 40 45 50 55 60 65 70 75 80 85 90 95 100 105 110 115 120 125 130 135 140 145 150 155 160 165 170 175 180 185 190 195 200 205 210 215 220 225 230 235 240 245 250 255 260 265 270 275 280 285 290 295 300 305 310 315 320 325 330 335 340 345 350 355 360 365 370 375 380 385 390 395 400 405 410 415 420 425 430 435 440 445 450 455 460 465 470 475 480 485 490 495 500 505 510 515 520 525 530 535 540 545 550 555 560 565 570 575 580 585 590 595 600 605 610 615 620 625 630 635 640 645 650 655 660 665 670 675 680 685 690 695 700 705 710 715 720 725 730 735 740 745 750 755 760 765 770 775 780 785 790 795 800 </DataArray>
        <DataArray type="Int8" Name="types" format="ascii">68 68 68 68 68 68 68 68 68 68 68 68 68 68 68 68 68 68 68 68 68 68 68 68 68 68 68 68 68 68 68 68 68 68 68 68 68 68 68 68 68 68 68 68 68 68 68 68 68 68 68 68 68 68 68 68 68 68 68 68 68 68 68 68 68 68 68 68 68 68 68 68 68 68 68 68 68 68 68 68 68 68 68 68 68 68 68 68 68 68 68 68 68 68 68 68 68 68 68 68 68 68 68 68 68 68 68 68 68 68 68 68 68 68 68 68 68 68 68 68 68 68 68 68 68 68 68 68 68 68 68 68 68 68 68 68 68 68 68 68 68 68 68 68 68 68 68 68 68 68 68 68 68 68 68 68 68 68 68 68 </DataArray>
      </Cells>
      <CellData>
        <DataArray type="UInt8" Name="vtkGhostType" format="ascii" RangeMin="0" RangeMax="1">0 0 0 0 0 0 0 0 0 0 0 0 0 0 0 0 0 0 0 0 0 0 0 0 0 0 0 0 0 0 0 0 0 0 0 0 0 0 0 0 0 0 0 0 0 0 0 0 0 0 0 0 0 0 0 0 0 0 0 0 0 0 0 0 0 0 0 0 0 0 0 0 0 0 0 0 0 0 0 0 0 0 0 0 0 0 0 0 0 0 0 0 0 0 0 0 0 0 0 0 0 0 0 0 0 0 0 0 0 0 0 0 0 0 0 0 0 0 0 0 0 0 0 0 0 0 0 0 0 0 0 0 0 0 0 0 0 0 0 0 0 0 0 0 0 0 0 0 0 0 0 0 0 0 0 0 0 0 0 0 </DataArray>
        <DataArray type="Int64" IdType="1" Name="vtkOriginalCellIds" format="ascii" RangeMin="0" RangeMax="159">0 1 2 3 4 5 6 7 8 9 10 11 12 13 14 15 16 17 18 19 20 21 22 23 24 25 26 27 28 29 30 31 32 33 34 35 36 37 38 39 40 41 42 43 44 45 46 47 48 49 50 51 52 53 54 55 56 57 58 59 60 61 62 63 64 65 66 67 68 69 70 71 72 73 74 75 76 77 78 79 80 81 82 83 84 85 86 87 88 89 90 91 92 93 94 95 96 97 98 99 100 101 102 103 104 105 106 107 108 109 110 111 112 113 114 115 116 117 118 119 120 121 122 123 124 125 126 127 128 129 130 131 132 133 134 135 136 137 138 139 140 141 142 143 144 145 146 147 148 149 150 151 152 153 154 155 156 157 158 159 </DataArray>
      </CellData>
      <PointData Scalars="p">
        <DataArray type="Int64" IdType="1" Name="vtkOriginalPointIds" format="ascii" RangeMin="0" RangeMax="640">0 1 2 3 4 5 6 7 8 9 10 11 12 13 14 15 16 17 18 19 20 21 22 23 24 25 26 27 28 29 30 31 32 33 34 35 36 37 38 39 40 41 42 43 44 45 46 47 48 49 50 51 52 53 54 55 56 57 58 59 60 61 62 63 64 65 66 67 68 69 70 71 72 73 74 75 76 77 78 79 80 81 82 83 84 85 86 87 88 89 90 91 92 93 94 95 96 97 98 99 100 101 102 103 104 105 106 107 108 109 110 111 112 113 114 115 116 117 118 119 120 121 122 123 124 125 126 127 128 129 130 131 132 133 134 135 136 137 138 139 140 141 142 143 144 145 146 147 148 149 150 151 152 153 154 155 156 157 158 159 160 161 162 163 164 165 166 167 168 169 170 171 172 173 174 175 176 177 178 179 180 181 182 183 184 185 186 187 188 189 190 191 192 193 194 195 196 197 198 199 200 201 202 203 204 205 206 207 208 209 210 211 212 213 214 215 216 217 218 219 220 221 222 223 224 225 226 227 228 229 230 231 232 233 234 235 236 237 238 239 240 241 242 243 244 245 246 247 248 249 250 251 252 253 254 255 256 257 258 259 260 261 262 263 264 265 266 267 268 269 270 271 272 273 274 275 276 277 278 279 280 281 282 283 284 285 286 287 288 289 290 291 292 293 294 295 296 297 298 299 300 301 302 303 304 305 306 307 308 309 310 311 312 313 314 315 316 317 318 319 320 321 322 323 324 325 326 327 328 329 330 331 332 333 334 335 336 337 338 339 340 341 342 343 344 345 346 347 348 349 350 351 352 353 354 355 356 357 358 359 360 361 362 363 364 365 366 367 368 369 370 371 372 373 374 375 376 377 378 379 380 381 382 383 384 385 386 387 388 389 390 391 392 393 394 395 396 397 398 399 400 401 402 403 404 405 406 407 408 409 410 411 412 413 414 415 416 417 418 419 420 421 422 423 424 425 426 427 428 429 430 431 432 433 434 435 436 437 438 439 440 441 442 443 444 445 446 447 448 449 450 451 452 453 454 455 456 457 458 459 460 461 462 463 464 465 466 467 468 469 470 471 472 473 474 475 476 477 478 479 480 481 482 483 484 485 486 487 488 489 490 491 492 493 494 495 496 497 498 499 500 501 502 503 504 505 506 507 508 509 510 511 512 513 514 515 516 517 518 519 520 521 522 523 524 525 526 527 528 529 530 531 532 533 534 535 536 537 538 539 540 541 542 543 544 545 546 547 548 549 550 551 552 553 554 555 556 557 558 559 560 561 562 563 564 565 566 567 568 569 570 571 572 573 574 575 576 577 578 579 580 581 582 583 584 585 586 587 588 589 590 591 592 593 594 595 596 597 598 599 600 601 602 603 604 605 606 607 608 609 610 611 612 613 614 615 616 617 618 619 620 621 622 623 624 625 626 627 628 629 630 631 632 633 634 635 636 637 638 639 640 </DataArray>
        <DataArray type="UInt8" Name="vtkGhostType" format="ascii" RangeMin="0" RangeMax="0">0 0 0 0 0 0 0 0 0 0 0 0 0 0 0 0 0 0 0 0 0 0 0 0 0 0 0 0 0 0 0 0 0 0 0 0 0 0 0 0 0 0 0 0 0 0 0 0 0 0 0 0 0 0 0 0 0 0 0 0 0 0 0 0 0 0 0 0 0 0 0 0 0 0 0 0 0 0 0 0 0 0 0 0 0 0 0 0 0 0 0 0 0 0 0 0 0 0 0 0 0 0 0 0 0 0 0 0 0 0 0 0 0 0 0 0 0 0 0 0 0 0 0 0 0 0 0 0 0 0 0 0 0 0 0 0 0 0 0 0 0 0 0 0 0 0 0 0 0 0 0 0 0 0 0 0 0 0 0 0 0 0 0 0 0 0 0 0 0 0 0 0 0 0 0 0 0 0 0 0 0 0 0 0 0 0 0 0 0 0 0 0 0 0 0 0 0 0 0 0 0 0 0 0 0 0 0 0 0 0 0 0 0 0 0 0 0 0 0 0 0 0 0 0 0 0 0 0 0 0 0 0 0 0 0 0 0 0 0 0 0 0 0 0 0 0 0 0 0 0 0 0 0 0 0 0 0 0 0 0 0 0 0 0 0 0 0 0 0 0 0 0 0 0 0 0 0 0 0 0 0 0 0 0 0 0 0 0 0 0 0 0 0 0 0 0 0 0 0 0 0 0 0 0 0 0 0 0 0 0 0 0 0 0 0 0 0 0 0 0 0 0 0 0 0 0 0 0 0 0 0 0 0 0 0 0 0 0 0 0 0 0 0 0 0 0 0 0 0 0 0 0 0 0 0 0 0 0 0 0 0 0 0 0 0 0 0 0 0 0 0 0 0 0 0 0 0 0 0 0 0 0 0 0 0 0 0 0 0 0 0 0 0 0 0 0 0 0 0 0 0 0 0 0 0 0 0 0 0 0 0 0 0 0 0 0 0 0 0 0 0 0 0 0 0 0 0 0 0 0 0 0 0 0 0 0 0 0 0 0 0 0 0 0 0 0 0 0 0 0 0 0 0 0 0 0 0 0 0 0 0 0 0 0 0 0 0 0 0 0 0 0 0 0 0 0 0 0 0 0 0 0 0 0 0 0 0 0 0 0 0 0 0 0 0 0 0 0 0 0 0 0 0 0 0 0 0 0 0 0 0 0 0 0 0 0 0 0 0 0 0 0 0 0 0 0 0 0 0 0 0 0 0 0 0 0 0 0 0 0 0 0 0 0 0 0 0 0 0 0 0 0 0 0 0 0 0 0 0 0 0 0 0 0 0 0 0 0 0 0 0 0 0 0 0 0 0 0 0 0 0 0 0 0 0 0 0 0 0 0 0 0 0 0 0 0 0 0 0 0 0 0 0 0 0 0 0 0 0 0 0 0 0 0 0 0 0 0 0 0 0 0 0 0 0 0 0 0 0 0 0 0 0 0 0 0 0 0 0 0 0 </DataArray>