<?xml version="1.0"?>
<VTKFile type="UnstructuredGrid" version="2.2">
  <UnstructuredGrid>
    <Piece NumberOfPoints="161" NumberOfCells="160">
      <Points>
        <DataArray type="Float64" NumberOfComponents="3" format="ascii">0 0 0 0.0078125 0 0 0.015625 0 0 0.0234375 0 0 0.03125 0 0 0.0390625 0 0 0.046875 0 0 0.0546875 0 0 0.0625 0 0 0.0703125 0 0 0.078125 0 0 0.0859375 0 0 0.09375 0 0 0.1015625 0 0 0.109375 0 0 0.1171875 0 0 0.125 0 0 0.1328125 0 0 0.140625 0 0 0.1484375 0 0 0.15625 0 0 0.1640625 0 0 0.171875 0 0 0.1796875 0 0 0.1875 0 0 0.1953125 0 0 0.203125 0 0 0.2109375 0 0 0.21875 0 0 0.2265625 0 0 0.234375 0 0 0.2421875 0 0 0.25 0 0 0.2578125 0 0 0.265625 0 0 0.2734375 0 0 0.28125 0 0 0.2890625 0 0 0.296875 0 0 0.3046875 0 0 0.3125 0 0 0.3203125 0 0 0.328125 0 0 0.3359375 0 0 0.34375 0 0 0.3515625 0 0 0.359375 0 0 0.3671875 0 0 0.375 0 0 0.3828125 0 0 0.390625 0 0 0.3984375 0 0 0.40625 0 0 0.4140625 0 0 0.421875 0 0 0.4296875 0 0 0.4375 0 0 0.4453125 0 0 0.453125 0 0 0.4609375 0 0 0.46875 0 0 0.4765625 0 0 0.484375 0 0 0.4921875 0 0 0.5 0 0 0.5078125 0 0 0.515625 0 0 0.5234375 0 0 0.53125 0 0 0.5390625 0 0 0.546875 0 0 0.5546875 0 0 0.5625 0 0 0.5703125 0 0 0.578125 0 0 0.5859375 0 0 0.59375 0 0 0.6015625 0 0 0.609375 0 0 0.6171875 0 0 0.625 0 0 0.6328125 0 0 0.640625 0 0 0.6484375 0 0 0.65625 0 0 0.6640625 0 0 0.671875 0 0 0.6796875 0 0 0.6875 0 0 0.6953125 0 0 0.703125 0 0 0.7109375 0 0 0.71875 0 0 0.7265625 0 0 0.734375 0 0 0.7421875 0 0 0.75 0 0 0.7578125 0 0 0.765625 0 0 0.7734375 0 0 0.78125 0 0 0.7890625 0 0 0.796875 0 0 0.8046875 0 0 0.8125 0 0 0.8203125 0 0 0.828125 0 0 0.8359375 0 0 0.84375 0 0 0.8515625 0 0 0.859375 0 0 0.8671875 0 0 0.875 0 0 0.8828125 0 0 0.890625 0 0 0.8984375 0 0 0.90625 0 0 0.9140625 0 0 0.921875 0 0 0.9296875 0 0 0.9375 0 0 0.9453125 0 0 0.953125 0 0 0.9609375 0 0 0.96875 0 0 0.9765625 0 0 0.984375 0 0 0.9921875 0 0 1 0 0 1.0078125 0 0 1.015625 0 0 1.0234375 0 0 1.03125 0 0 1.0390625 0 0 1.046875 0 0 1.0546875 0 0 1.0625 0 0 1.0703125 0 0 1.078125 0 0 1.0859375 0 0 1.09375 0 0 1.1015625 0 0 1.109375 0 0 1.1171875 0 0 1.125 0 0 1.1328125 0 0 1.140625 0 0 1.1484375 0 0 1.15625 0 0 1.1640625 0 0 1.171875 0 0 1.1796875 0 0 1.1875 0 0 1.1953125 0 0 1.203125 0 0 1.2109375 0 0 1.21875 0 0 1.2265625 0 0 1.234375 0 0 1.2421875 0 0 1.25 0 0 </DataArray>
      </Points>
      <Cells>
        <DataArray type="Int32" Name="connectivity" format="ascii">0 1 1 2 2 3 3 4 4 5 5 6 6 7 7 8 8 9 9 10 10 11 11 12 12 13 13 14 14 15 15 16 16 17 17 18 18 19 19 20 20 21 21 22 22 23 23 24 24 25 25 26 26 27 27 28 28 29 29 30 30 31 31 32 32 33 33 34 34 35 35 36 36 37 37 38 38 39 39 40 40 41 41 42 42 43 43 44 44 45 45 46 46 47 47 48 48 49 49 50 50 51 51 52 52 53 53 54 54 55 55 56 56 57 57 58 58 59 59 60 60 61 61 62 62 63 63 64 64 65 65 66 66 67 67 68 68 69 69 70 70 71 71 72 72 73 73 74 74 75 75 76 76 77 77 78 78 79 79 80 80 81 81 82 82 83 83 84 84 85 85 86 86 87 87 88 88 89 89 90 90 91 91 92 92 93 93 94 94 95 95 96 96 97 97 98 98 99 99 100 100 101 101 102 102 103 103 104 104 105 105 106 106 107 107 108 108 109 109 110 110 111 111 112 112 113 113 114 114 115 115 116 116 117 117 118 118 119 119 120 120 121 121 122 122 123 123 124 124 125 125 126 126 127 127 128 128 129 129 130 130 131 131 132 132 133 133 134 134 135 135 136 136 137 137 138 138 139 139 140 140 141 141 142 142 143 143 144 144 145 145 146 146 147 147 148 148 149 149 150 150 151 151 152 152 153 153 154 154 155 155 156 156 157 157 158 158 159 159 160 </DataArray>
        <DataArray type="Int32" Name="offsets" format="ascii">2 4 6 8 10 12 14 16 18 20 22 24 26 28 30 32 34 36 38 40 42 44 46 48 50 52 54 56 58 60 62 64 66 68 70 72 74 76 78 80 82 84 86 88 90 92 94 96 98 100 102 104 106 108 110 112 114 116 118 120 122 124 126 128 130 132 134 136 138 140 142 144 146 148 150 152 154 156 158 160 162 164 166 168 170 172 174 176 178 180 182 184 186 188 190 192 194 196 198 200 202 204 206 208 210 212 214 216 218 220 222 224 226 228 230 232 234 236 238 240 242 244 246 248 250 252 254 256 258 260 262 264 266 268 270 272 274 276 278 280 282 284 286 288 290 292 294 296 298 300 302 304 306 308 310 312 314 316 318 320 </DataArray>
        <DataArray type="Int8" Name="types" format="ascii">68 68 68 68 68 68 68 68 68 68 68 68 68 68 68 68 68 68 68 68 68 68 68 68 68 68 68 68 68 68 68 68 68 68 68 68 68 68 68 68 68 68 68 68 68 68 68 68 68 68 68 68 68 68 68 68 68 68 68 68 68 68 68 68 68 68 68 68 68 68 68 68 68 68 68 68 68 68 68 68 68 68 68 68 68 68 68 68 68 68 68 68 68 68 68 68 68 68 68 68 68 68 68 68 68 68 68 68 68 68 68 68 68 68 68 68 68 68 68 68 68 68 68 68 68 68 68 68 68 68 68 68 68 68 68 68 68 68 68 68 68 68 68 68 68 68 68 68 68 68 68 68 68 68 68 68 68 68 68 68 </DataArray>
      </Cells>
      <CellData>
        <DataArray type="UInt8" Name="vtkGhostType" format="ascii" RangeMin="0" RangeMax="1">0 0 0 0 0 0 0 0 0 0 0 0 0 0 0 0 0 0 0 0 0 0 0 0 0 0 0 0 0 0 0 0 0 0 0 0 0 0 0 0 0 0 0 0 0 0 0 0 0 0 0 0 0 0 0 0 0 0 0 0 0 0 0 0 0 0 0 0 0 0 0 0 0 0 0 0 0 0 0 0 0 0 0 0 0 0 0 0 0 0 0 0 0 0 0 0 0 0 0 0 0 0 0 0 0 0 0 0 0 0 0 0 0 0 0 0 0 0 0 0 0 0 0 0 0 0 0 0 0 0 0 0 0 0 0 0 0 0 0 0 0 0 0 0 0 0 0 0 0 0 0 0 0 0 0 0 0 0 0 0 </DataArray>
        <DataArray type="Int64" IdType="1" Name="vtkOriginalCellIds" format="ascii" RangeMin="0" RangeMax="159">0 1 2 3 4 5 6 7 8 9 10 11 12 13 14 15 16 17 18 19 20 21 22 23 24 25 26 27 28 29 30 31 32 33 34 35 36 37 38 39 40 41 42 43 44 45 46 47 48 49 50 51 52 53 54 55 56 57 58 59 60 61 62 63 64 65 66 67 68 69 70 71 72 73 74 75 76 77 78 79 80 81 82 83 84 85 86 87 88 89 90 91 92 93 94 95 96 97 98 99 100 101 102 103 104 105 106 107 108 109 110 111 112 113 114 115 116 117 118 119 120 121 122 123 124 125 126 127 128 129 130 131 132 133 134 135 136 137 138 139 140 141 142 143 144 145 146 147 148 149 150 151 152 153 154 155 156 157 158 159 </DataArray>
      </CellData>
      <PointData>
        <DataArray type="Int64" IdType="1" Name="vtkOriginalPointIds" format="ascii" RangeMin="0" RangeMax="160">0 1 2 3 4 5 6 7 8 9 10 11 12 13 14 15 16 17 18 19 20 21 22 23 24 25 26 27 28 29 30 31 32 33 34 35 36 37 38 39 40 41 42 43 44 45 46 47 48 49 50 51 52 53 54 55 56 57 58 59 60 61 62 63 64 65 66 67 68 69 70 71 72 73 74 75 76 77 78 79 80 81 82 83 84 85 86 87 88 89 90 91 92 93 94 95 96 97 98 99 100 101 102 103 104 105 106 107 108 109 110 111 112 113 114 115 116 117 118 119 120 121 122 123 124 125 126 127 128 129 130 131 132 133 134 135 136 137 138 139 140 141 142 143 144 145 146 147 148 149 150 151 152 153 154 155 156 157 158 159 160 </DataArray>
        <DataArray type="UInt8" Name="vtkGhostType" format="ascii" RangeMin="0" RangeMax="0">0 0 0 0 0 0 0 0 0 0 0 0 0 0 0 0 0 0 0 0 0 0 0 0 0 0 0 0 0 0 0 0 0 0 0 0 0 0 0 0 0 0 0 0 0 0 0 0 0 0 0 0 0 0 0 0 0 0 0 0 0 0 0 0 0 0 0 0 0 0 0 0 0 0 0 0 0 0 0 0 0 0 0 0 0 0 0 0 0 0 0 0 0 0 0 0 0 0 0 0 0 0 0 0 0 0 0 0 0 0 0 0 0 0 0 0 0 0 0 0 0 0 0 0 0 0 0 0 0 0 0 0 0 0 0 0 0 0 0 0 0 0 0 0 0 0 0 0 0 0 0 0 0 0 0 0 0 0 0 0 0 </DataArray>
      </PointData>
    </Piece>
  </UnstructuredGrid>
</VTKFile>
